
data_Zirconium_Vanadium_Oxide_(3/3/1)

_audit_creation_date              '15/02/2024 14:39:03'
_audit_creation_method            'Generated by HighScore Plus 3.0.5'

_database_code_ICSD                38407

_chemical_name_systematic         
;
Zirconium Vanadium Oxide (3/3/1)
;

_chemical_formula_structural      
;
Zr3 V3 O
;

_chemical_formula_sum             
;
O1 V3 Zr3
;

_publ_section_title               
;
Deuterium site occupation in the oxvgen-stabilized eta-carbides Zr3 V3 O Dx: Preparation and neutron powder diffraction
;

_publ_section_comment             
;
Original ICSD space group: FD3-MS. No R value given in the paper..
Structure type : Fe3W3C. Temperature factors available. The
structure has been assigned a PDF number (calculated powder
diffraction data): 01-077-0347. Neutron diffraction (powder).
Structure type: Fe3W3C. Recording date: 12/31/1983. ANX formula:
NO3P3. Z: 16. Calculated density: 6.52. Pearson code: cF112.
Wyckoff code: f e d cStructure TIDY: TRANS  Origin  5/8 5/8
5/8Structure TIDY: REMARK Transformed from non-centrosymmetric
setting.
;

_publ_author_name                 
;
Jorgensen, J.D.;Gruen, D.M.;Flotow, H.E.;Rotella, F.J.
;

_journal_name_full                
;
Journal of Chemical Physics
;

_journal_coden_ASTM               'JCPSA6'
_journal_volume                   79
_journal_year                     1983
_journal_page_first               4522
_journal_page_last                4531

loop_
 _symmetry_equiv_pos_as_xyz
 'X, Y, Z'
 '-Y, X+1/4, Z+1/4'
 '-X+1/4, -Y+1/4, Z'
 'Y+1/4, -X, Z+1/4'
 'X+1/4, -Z, Y+1/4'
 'X, -Y+1/4, -Z+1/4'
 'X+1/4, Z+1/4, -Y'
 'Z+1/4, Y+1/4, -X'
 '-X+1/4, Y, -Z+1/4'
 '-Z, Y+1/4, X+1/4'
 'Z, X, Y'
 'Y, Z, X'
 '-Y+1/4, -Z+1/4, X'
 'Z, -X+1/4, -Y+1/4'
 '-Y+1/4, Z, -X+1/4'
 '-Z+1/4, -X+1/4, Y'
 '-Z+1/4, X, -Y+1/4'
 'Y, -Z+1/4, -X+1/4'
 'Y+1/4, X+1/4, -Z'
 '-Y, -X, -Z'
 '-X, Z+1/4, Y+1/4'
 '-X, -Z, -Y'
 'Z+1/4, -Y, X+1/4'
 '-Z, -Y, -X'
 '-X, -Y, -Z'
 'Y, -X+1/4, -Z+1/4'
 'X+1/4, Y+1/4, -Z'
 '-Y+1/4, X, -Z+1/4'
 '-X+1/4, Z, -Y+1/4'
 '-X, Y+1/4, Z+1/4'
 '-X+1/4, -Z+1/4, Y'
 '-Z+1/4, -Y+1/4, X'
 'X+1/4, -Y, Z+1/4'
 'Z, -Y+1/4, -X+1/4'
 '-Z, -X, -Y'
 '-Y, -Z, -X'
 'Y+1/4, Z+1/4, -X'
 '-Z, X+1/4, Y+1/4'
 'Y+1/4, -Z, X+1/4'
 'Z+1/4, X+1/4, -Y'
 'Z+1/4, -X, Y+1/4'
 '-Y, Z+1/4, X+1/4'
 '-Y+1/4, -X+1/4, Z'
 'Y, X, Z'
 'X, -Z+1/4, -Y+1/4'
 'X, Z, Y'
 '-Z+1/4, Y, -X+1/4'
 'Z, Y, X'
 'X, Y+1/2, Z+1/2'
 '-Y, X-1/4, Z-1/4'
 '-X+1/4, -Y-1/4, Z+1/2'
 'Y+1/4, -X+1/2, Z-1/4'
 'X+1/4, -Z+1/2, Y-1/4'
 'X, -Y-1/4, -Z-1/4'
 'X+1/4, Z-1/4, -Y+1/2'
 'Z+1/4, Y-1/4, -X+1/2'
 '-X+1/4, Y+1/2, -Z-1/4'
 '-Z, Y-1/4, X-1/4'
 'Z, X+1/2, Y+1/2'
 'Y, Z+1/2, X+1/2'
 '-Y+1/4, -Z-1/4, X+1/2'
 'Z, -X-1/4, -Y-1/4'
 '-Y+1/4, Z+1/2, -X-1/4'
 '-Z+1/4, -X-1/4, Y+1/2'
 '-Z+1/4, X+1/2, -Y-1/4'
 'Y, -Z-1/4, -X-1/4'
 'Y+1/4, X-1/4, -Z+1/2'
 '-Y, -X+1/2, -Z+1/2'
 '-X, Z-1/4, Y-1/4'
 '-X, -Z+1/2, -Y+1/2'
 'Z+1/4, -Y+1/2, X-1/4'
 '-Z, -Y+1/2, -X+1/2'
 '-X, -Y+1/2, -Z+1/2'
 'Y, -X-1/4, -Z-1/4'
 'X+1/4, Y-1/4, -Z+1/2'
 '-Y+1/4, X+1/2, -Z-1/4'
 '-X+1/4, Z+1/2, -Y-1/4'
 '-X, Y-1/4, Z-1/4'
 '-X+1/4, -Z-1/4, Y+1/2'
 '-Z+1/4, -Y-1/4, X+1/2'
 'X+1/4, -Y+1/2, Z-1/4'
 'Z, -Y-1/4, -X-1/4'
 '-Z, -X+1/2, -Y+1/2'
 '-Y, -Z+1/2, -X+1/2'
 'Y+1/4, Z-1/4, -X+1/2'
 '-Z, X-1/4, Y-1/4'
 'Y+1/4, -Z+1/2, X-1/4'
 'Z+1/4, X-1/4, -Y+1/2'
 'Z+1/4, -X+1/2, Y-1/4'
 '-Y, Z-1/4, X-1/4'
 '-Y+1/4, -X-1/4, Z+1/2'
 'Y, X+1/2, Z+1/2'
 'X, -Z-1/4, -Y-1/4'
 'X, Z+1/2, Y+1/2'
 '-Z+1/4, Y+1/2, -X-1/4'
 'Z, Y+1/2, X+1/2'
 'X+1/2, Y, Z+1/2'
 '-Y+1/2, X+1/4, Z-1/4'
 '-X-1/4, -Y+1/4, Z+1/2'
 'Y-1/4, -X, Z-1/4'
 'X-1/4, -Z, Y-1/4'
 'X+1/2, -Y+1/4, -Z-1/4'
 'X-1/4, Z+1/4, -Y+1/2'
 'Z-1/4, Y+1/4, -X+1/2'
 '-X-1/4, Y, -Z-1/4'
 '-Z+1/2, Y+1/4, X-1/4'
 'Z+1/2, X, Y+1/2'
 'Y+1/2, Z, X+1/2'
 '-Y-1/4, -Z+1/4, X+1/2'
 'Z+1/2, -X+1/4, -Y-1/4'
 '-Y-1/4, Z, -X-1/4'
 '-Z-1/4, -X+1/4, Y+1/2'
 '-Z-1/4, X, -Y-1/4'
 'Y+1/2, -Z+1/4, -X-1/4'
 'Y-1/4, X+1/4, -Z+1/2'
 '-Y+1/2, -X, -Z+1/2'
 '-X+1/2, Z+1/4, Y-1/4'
 '-X+1/2, -Z, -Y+1/2'
 'Z-1/4, -Y, X-1/4'
 '-Z+1/2, -Y, -X+1/2'
 '-X+1/2, -Y, -Z+1/2'
 'Y+1/2, -X+1/4, -Z-1/4'
 'X-1/4, Y+1/4, -Z+1/2'
 '-Y-1/4, X, -Z-1/4'
 '-X-1/4, Z, -Y-1/4'
 '-X+1/2, Y+1/4, Z-1/4'
 '-X-1/4, -Z+1/4, Y+1/2'
 '-Z-1/4, -Y+1/4, X+1/2'
 'X-1/4, -Y, Z-1/4'
 'Z+1/2, -Y+1/4, -X-1/4'
 '-Z+1/2, -X, -Y+1/2'
 '-Y+1/2, -Z, -X+1/2'
 'Y-1/4, Z+1/4, -X+1/2'
 '-Z+1/2, X+1/4, Y-1/4'
 'Y-1/4, -Z, X-1/4'
 'Z-1/4, X+1/4, -Y+1/2'
 'Z-1/4, -X, Y-1/4'
 '-Y+1/2, Z+1/4, X-1/4'
 '-Y-1/4, -X+1/4, Z+1/2'
 'Y+1/2, X, Z+1/2'
 'X+1/2, -Z+1/4, -Y-1/4'
 'X+1/2, Z, Y+1/2'
 '-Z-1/4, Y, -X-1/4'
 'Z+1/2, Y, X+1/2'
 'X+1/2, Y+1/2, Z'
 '-Y+1/2, X-1/4, Z+1/4'
 '-X-1/4, -Y-1/4, Z'
 'Y-1/4, -X+1/2, Z+1/4'
 'X-1/4, -Z+1/2, Y+1/4'
 'X+1/2, -Y-1/4, -Z+1/4'
 'X-1/4, Z-1/4, -Y'
 'Z-1/4, Y-1/4, -X'
 '-X-1/4, Y+1/2, -Z+1/4'
 '-Z+1/2, Y-1/4, X+1/4'
 'Z+1/2, X+1/2, Y'
 'Y+1/2, Z+1/2, X'
 '-Y-1/4, -Z-1/4, X'
 'Z+1/2, -X-1/4, -Y+1/4'
 '-Y-1/4, Z+1/2, -X+1/4'
 '-Z-1/4, -X-1/4, Y'
 '-Z-1/4, X+1/2, -Y+1/4'
 'Y+1/2, -Z-1/4, -X+1/4'
 'Y-1/4, X-1/4, -Z'
 '-Y+1/2, -X+1/2, -Z'
 '-X+1/2, Z-1/4, Y+1/4'
 '-X+1/2, -Z+1/2, -Y'
 'Z-1/4, -Y+1/2, X+1/4'
 '-Z+1/2, -Y+1/2, -X'
 '-X+1/2, -Y+1/2, -Z'
 'Y+1/2, -X-1/4, -Z+1/4'
 'X-1/4, Y-1/4, -Z'
 '-Y-1/4, X+1/2, -Z+1/4'
 '-X-1/4, Z+1/2, -Y+1/4'
 '-X+1/2, Y-1/4, Z+1/4'
 '-X-1/4, -Z-1/4, Y'
 '-Z-1/4, -Y-1/4, X'
 'X-1/4, -Y+1/2, Z+1/4'
 'Z+1/2, -Y-1/4, -X+1/4'
 '-Z+1/2, -X+1/2, -Y'
 '-Y+1/2, -Z+1/2, -X'
 'Y-1/4, Z-1/4, -X'
 '-Z+1/2, X-1/4, Y+1/4'
 'Y-1/4, -Z+1/2, X+1/4'
 'Z-1/4, X-1/4, -Y'
 'Z-1/4, -X+1/2, Y+1/4'
 '-Y+1/2, Z-1/4, X+1/4'
 '-Y-1/4, -X-1/4, Z'
 'Y+1/2, X+1/2, Z'
 'X+1/2, -Z-1/4, -Y+1/4'
 'X+1/2, Z+1/2, Y'
 '-Z-1/4, Y+1/2, -X+1/4'
 'Z+1/2, Y+1/2, X'

_xact_pref_orient_vector_h        0.00000000
_xact_pref_orient_vector_k        0.00000000
_xact_pref_orient_vector_l        1.00000000
_xact_pref_orient_param           1.000000
_xact_scale_factor                0.010000
_xact_cagliotti_U                 0.000000
_xact_cagliotti_V                 0.000000
_xact_cagliotti_W                 0.010000
_xact_shape_param_1               0.600000
_xact_shape_param_2               0.000000
_xact_shape_param_3               0.000000
_xact_asym_param_1                0.000000
_xact_asym_param_2                0.000000
_cell_length_a                    12.170000
_cell_length_b                    12.170000
_cell_length_c                    12.170000
_cell_angle_alpha                 90
_cell_angle_beta                  90
_cell_angle_gamma                 90

_symmetry_space_group_name_H-M    'F d -3 m'
_symmetry_Int_Tables_number       227


loop_
 _atom_site_label
 _atom_site_type_symbol
 _atom_site_fract_x
 _atom_site_fract_y
 _atom_site_fract_z
 _atom_site_U_iso_or_equiv
 _atom_site_thermal_displace_type
 _atom_site_occupancy
 _atom_site_symmetry_multiplicity
 _atom_site_Wyckoff_symbol
 _atom_site_calc_flag
O1 O 0.500000 0.500000 0.500000 0.00456(4) Uiso 1.000000 16 d d
V1 V 0.207800 0.207800 0.207800 0.00380(2) Uiso 1.000000 32 e d
V2 V 0.000000 0.000000 0.000000 0.00380(2) Uiso 1.000000 16 c d
ZR1 Zr 0.435410 0.125000 0.125000 0.005003(2) Uiso 1.000000 48 f d

loop_
 _atom_site_aniso_label
 _atom_site_aniso_U_11
 _atom_site_aniso_U_22
 _atom_site_aniso_U_33
 _atom_site_aniso_U_23
 _atom_site_aniso_U_13
 _atom_site_aniso_U_12
O1 0.000000 0.000000 0.000000 0.000000 0.000000 0.000000 
V1 0.000000 0.000000 0.000000 0.000000 0.000000 0.000000 
V2 0.000000 0.000000 0.000000 0.000000 0.000000 0.000000 
ZR1 0.000000 0.000000 0.000000 0.000000 0.000000 0.000000 

