
# International Centre for Diffraction Data. All rights reserved.
data_Zirconium_Divanadate

_audit_creation_date              '17/10/2023 13:52:54'
_audit_creation_method            'Generated by HighScore Plus 3.0.5'

_database_code_ICSD                84883

_chemical_name_systematic         
;
Zirconium Divanadate
;

_chemical_formula_structural      
;
Zr (V2 O7)
;

_chemical_formula_sum             
;
O7 V2 Zr1
;

_database_code_PDF                '00-016-0422'
_publ_section_title               
;
Structure of Zr V2 O7 from -263 to 470 C
;

_publ_section_comment             
;
Original ICSD space group: PA3-. Stable above 375 K (3rd ref.,
Tomaszewski), below 343 K Z=108. Structure type : ZrP2O7. Temperature
factors available. Temperature in Kelvin: 743. Rietveld profile
refinement applied. The structure has been assigned a PDF number
(experimental powder diffraction data): 16-422. The structure
has been assigned a PDF number (calculated powder diffraction
data): 01-088-0583. Neutron diffraction (powder). Structure
type: ZrP2O7. Recording date: 1/19/1999. Modification date:
4/1/2006. ANX formula: AB2X7. Z: 4. Calculated density: 2.97.
R value: 0.042. Pearson code: cP40. Wyckoff code: d c b a. PDF
code: 00-016-0422
Structure TIDY: TRANS  Origin  1/2 1/2 1/2
;

_publ_author_name                 
;
Vogt, T.;Sleight, A.W.;Khosrovani, N.
;

_journal_name_full                
;
Golden Book of Phase Transitions, Wroclaw
;

_journal_coden_ASTM               'GBOPT5'
_journal_volume                   1
_journal_year                     2002
_journal_page_first               1
_journal_page_last                123

loop_
 _symmetry_equiv_pos_as_xyz
 'X, Y, Z'
 'Z, X, Y'
 'Y, Z, X'
 '-Y+1/2, -Z, X+1/2'
 'Z+1/2, -X+1/2, -Y'
 '-Y, Z+1/2, -X+1/2'
 '-Z+1/2, -X, Y+1/2'
 '-Z, X+1/2, -Y+1/2'
 'Y+1/2, -Z+1/2, -X'
 '-X+1/2, -Y, Z+1/2'
 'X+1/2, -Y+1/2, -Z'
 '-X, Y+1/2, -Z+1/2'
 '-X, -Y, -Z'
 '-Z, -X, -Y'
 '-Y, -Z, -X'
 'Y+1/2, Z, -X+1/2'
 '-Z+1/2, X+1/2, Y'
 'Y, -Z+1/2, X+1/2'
 'Z+1/2, X, -Y+1/2'
 'Z, -X+1/2, Y+1/2'
 '-Y+1/2, Z+1/2, X'
 'X+1/2, Y, -Z+1/2'
 '-X+1/2, Y+1/2, Z'
 'X, -Y+1/2, Z+1/2'

_xact_pref_orient_vector_h        0.00000000
_xact_pref_orient_vector_k        0.00000000
_xact_pref_orient_vector_l        1.00000000
_xact_pref_orient_param           1.000000
_xact_scale_factor                0.010000
_xact_cagliotti_U                 0.000000
_xact_cagliotti_V                 0.000000
_xact_cagliotti_W                 0.010000
_xact_shape_param_1               0.600000
_xact_shape_param_2               0.000000
_xact_shape_param_3               0.000000
_xact_asym_param_1                0.000000
_xact_asym_param_2                0.000000
_cell_length_a                    8.799000
_cell_length_b                    8.799000
_cell_length_c                    8.799000
_cell_angle_alpha                 90
_cell_angle_beta                  90
_cell_angle_gamma                 90

_symmetry_space_group_name_H-M    'P a -3'
_symmetry_Int_Tables_number       205


loop_
 _atom_site_label
 _atom_site_type_symbol
 _atom_site_fract_x
 _atom_site_fract_y
 _atom_site_fract_z
 _atom_site_U_iso_or_equiv
 _atom_site_thermal_displace_type
 _atom_site_occupancy
 _atom_site_symmetry_multiplicity
 _atom_site_Wyckoff_symbol
 _atom_site_calc_flag
O1 O 0.000000 0.000000 0.000000 0.006333 Uiso 1.000000 4 a d
O2 O 0.062900 0.294400 0.092900 0.006333 Uiso 1.000000 24 d d
V1 V 0.117300 0.117300 0.117300 0.01690(7) Uiso 1.000000 8 c d
ZR1 Zr 0.500000 0.500000 0.500000 0.02820(5) Uiso 1.000000 4 b d

loop_
 _atom_site_aniso_label
 _atom_site_aniso_U_11
 _atom_site_aniso_U_22
 _atom_site_aniso_U_33
 _atom_site_aniso_U_23
 _atom_site_aniso_U_13
 _atom_site_aniso_U_12
O1 0.09500(1) 0.09500(1) 0.09500(1) -0.02950(2) -0.02950(2) 0.00000(2) 
O2 0.07880(2) 0.03740(1) 0.08410(2) 0.01730(1) -0.00250(1) 0.02520(1) 
V1 0.000000 0.000000 0.000000 0.000000 0.000000 0.000000 
ZR1 0.000000 0.000000 0.000000 0.000000 0.000000 0.000000 

_refine_ls_R_factor_all           0.00042000
